<?xml version="1.0" encoding="UTF-8"?>

<!-- generated on 2026-07-11T04:28:32.495552+00:00 by Eclipse SUMO GUI 1.27.0
<sumoConfiguration xmlns:xsi="http://www.w3.org/2001/XMLSchema-instance" xsi:noNamespaceSchemaLocation="http://sumo.dlr.de/xsd/sumoConfiguration.xsd">

    <input>
        <net-file value="intersection.net.xml"/>
        <route-files value="traffic.rou.xml"/>
        <additional-files value="vtypes.add.xml"/>
    </input>

    <output>
        <tripinfo-output value="tripinfo.xml"/>
    </output>

    <time>
        <begin value="0"/>
        <end value="3600"/>
        <step-length value="1.0"/>
    </time>

    <processing>
        <lateral-resolution value="0.5"/>
        <collision.action value="warn"/>
        <collision.mingap-factor value="0"/>
        <time-to-teleport value="-1"/>
    </processing>

    <report>
        <duration-log.statistics value="true"/>
        <no-step-log value="true"/>
    </report>

    <gui_only>
        <gui-settings-file value="gui-settings.xml"/>
        <start value="true"/>
        <window-size value="1400,900"/>
    </gui_only>

</sumoConfiguration>
-->

<tripinfos xmlns:xsi="http://www.w3.org/2001/XMLSchema-instance" xsi:noNamespaceSchemaLocation="http://sumo.dlr.de/xsd/tripinfo_file.xsd">
    <tripinfo id="f_S_N.0" depart="0.00" departLane="S_in_0" departPos="2.90" departPosLat="0.00" departSpeed="14.00" departDelay="0.00" arrival="30.00" arrivalLane="N_out_0" arrivalPos="189.00" arrivalPosLat="0.00" arrivalSpeed="13.96" duration="30.00" routeLength="397.10" waitingTime="0.00" waitingCount="0" stopTime="0.00" timeLoss="1.07" rerouteNo="0" devices="tripinfo_f_S_N.0" vType="auto" speedFactor="1.09" vaporized=""/>
    <tripinfo id="f_S_W.0" depart="0.00" departLane="S_in_1" departPos="2.10" departPosLat="0.00" departSpeed="15.60" departDelay="0.00" arrival="30.00" arrivalLane="W_out_1" arrivalPos="189.00" arrivalPosLat="0.00" arrivalSpeed="14.15" duration="30.00" routeLength="396.46" waitingTime="0.00" waitingCount="0" stopTime="0.00" timeLoss="3.63" rerouteNo="0" devices="tripinfo_f_S_W.0" vType="moto" speedFactor="1.12" vaporized=""/>
    <tripinfo id="f_N_W.0" depart="1.00" departLane="N_in_0" departPos="2.10" departPosLat="0.00" departSpeed="9.58" departDelay="1.00" arrival="36.00" arrivalLane="W_out_1" arrivalPos="189.00" arrivalPosLat="-1.45" arrivalSpeed="13.23" duration="35.00" routeLength="385.17" waitingTime="0.00" waitingCount="0" stopTime="0.00" timeLoss="6.51" rerouteNo="0" devices="tripinfo_f_N_W.0" vType="moto" speedFactor="1.01" vaporized=""/>
    <tripinfo id="f_S_E.0" depart="1.00" departLane="S_in_0" departPos="2.10" departPosLat="0.00" departSpeed="12.53" departDelay="1.00" arrival="36.00" arrivalLane="E_out_0" arrivalPos="189.00" arrivalPosLat="0.00" arrivalSpeed="11.22" duration="35.00" routeLength="385.17" waitingTime="0.00" waitingCount="0" stopTime="0.00" timeLoss="4.13" rerouteNo="0" devices="tripinfo_f_S_E.0" vType="moto" speedFactor="0.92" vaporized=""/>
    <tripinfo id="f_N_E.0" depart="0.00" departLane="N_in_1" departPos="2.10" departPosLat="0.00" departSpeed="12.31" departDelay="0.00" arrival="37.00" arrivalLane="E_out_1" arrivalPos="189.00" arrivalPosLat="0.00" arrivalSpeed="10.53" duration="37.00" routeLength="396.46" waitingTime="0.00" waitingCount="0" stopTime="0.00" timeLoss="3.59" rerouteNo="0" devices="tripinfo_f_N_E.0" vType="moto" speedFactor="0.89" vaporized=""/>
    <tripinfo id="f_N_S.0" depart="0.00" departLane="N_in_0" departPos="2.10" departPosLat="0.00" departSpeed="11.70" departDelay="0.00" arrival="38.00" arrivalLane="S_out_0" arrivalPos="189.00" arrivalPosLat="0.00" arrivalSpeed="11.36" duration="38.00" routeLength="397.90" waitingTime="0.00" waitingCount="0" stopTime="0.00" timeLoss="3.23" rerouteNo="0" devices="tripinfo_f_N_S.0" vType="moto" speedFactor="0.84" vaporized=""/>
    <tripinfo id="f_N_S.1" depart="8.00" departLane="N_in_1" departPos="2.10" departPosLat="0.00" departSpeed="14.29" departDelay="0.80" arrival="39.00" arrivalLane="S_out_1" arrivalPos="189.00" arrivalPosLat="0.00" arrivalSpeed="12.98" duration="31.00" routeLength="397.90" waitingTime="0.00" waitingCount="0" stopTime="0.00" timeLoss="2.37" rerouteNo="0" devices="tripinfo_f_N_S.1" vType="moto" speedFactor="1.03" vaporized=""/>
    <tripinfo id="f_S_N.1" depart="8.00" departLane="S_in_0" departPos="4.60" departPosLat="0.00" departSpeed="12.36" departDelay="0.80" arrival="42.00" arrivalLane="N_out_0" arrivalPos="189.00" arrivalPosLat="0.00" arrivalSpeed="12.20" duration="34.00" routeLength="395.40" waitingTime="0.00" waitingCount="0" stopTime="0.00" timeLoss="1.69" rerouteNo="0" devices="tripinfo_f_S_N.1" vType="car" speedFactor="0.89" vaporized=""/>
    <tripinfo id="f_S_N.2" depart="15.00" departLane="S_in_1" departPos="2.10" departPosLat="0.00" departSpeed="15.72" departDelay="0.60" arrival="43.00" arrivalLane="N_out_1" arrivalPos="189.00" arrivalPosLat="0.00" arrivalSpeed="14.14" duration="28.00" routeLength="397.90" waitingTime="0.00" waitingCount="0" stopTime="0.00" timeLoss="1.84" rerouteNo="0" devices="tripinfo_f_S_N.2" vType="moto" speedFactor="1.13" vaporized=""/>
    <tripinfo id="f_N_S.2" depart="15.00" departLane="N_in_0" departPos="2.10" departPosLat="0.00" departSpeed="14.33" departDelay="0.60" arrival="46.00" arrivalLane="S_out_0" arrivalPos="189.00" arrivalPosLat="0.00" arrivalSpeed="12.73" duration="31.00" routeLength="397.90" waitingTime="0.00" waitingCount="0" stopTime="0.00" timeLoss="2.38" rerouteNo="0" devices="tripinfo_f_N_S.2" vType="moto" speedFactor="1.03" vaporized=""/>
    <tripinfo id="f_N_S.3" depart="22.00" departLane="N_in_1" departPos="2.10" departPosLat="0.00" departSpeed="15.58" departDelay="0.40" arrival="50.00" arrivalLane="S_out_1" arrivalPos="189.00" arrivalPosLat="0.00" arrivalSpeed="14.84" duration="28.00" routeLength="397.90" waitingTime="0.00" waitingCount="0" stopTime="0.00" timeLoss="1.74" rerouteNo="0" devices="tripinfo_f_N_S.3" vType="moto" speedFactor="1.12" vaporized=""/>
    <tripinfo id="f_S_N.3" depart="22.00" departLane="S_in_0" departPos="2.10" departPosLat="0.00" departSpeed="13.82" departDelay="0.40" arrival="53.00" arrivalLane="N_out_0" arrivalPos="189.00" arrivalPosLat="0.00" arrivalSpeed="12.91" duration="31.00" routeLength="397.90" waitingTime="0.00" waitingCount="0" stopTime="0.00" timeLoss="2.11" rerouteNo="0" devices="tripinfo_f_S_N.3" vType="moto" speedFactor="0.99" vaporized=""/>
    <tripinfo id="f_S_W.1" depart="24.00" departLane="S_in_1" departPos="2.10" departPosLat="0.00" departSpeed="15.31" departDelay="0.00" arrival="54.00" arrivalLane="W_out_1" arrivalPos="189.00" arrivalPosLat="0.00" arrivalSpeed="13.28" duration="30.00" routeLength="396.46" waitingTime="0.00" waitingCount="0" stopTime="0.00" timeLoss="3.18" rerouteNo="0" devices="tripinfo_f_S_W.1" vType="moto" speedFactor="1.10" vaporized=""/>
    <tripinfo id="f_N_W.1" depart="24.00" departLane="N_in_0" departPos="4.60" departPosLat="0.00" departSpeed="14.16" departDelay="0.00" arrival="55.00" arrivalLane="W_out_0" arrivalPos="189.00" arrivalPosLat="0.00" arrivalSpeed="13.46" duration="31.00" routeLength="382.67" waitingTime="0.00" waitingCount="0" stopTime="0.00" timeLoss="3.08" rerouteNo="0" devices="tripinfo_f_N_W.1" vType="car" speedFactor="1.02" vaporized=""/>
    <tripinfo id="f_N_E.1" depart="24.00" departLane="N_in_1" departPos="2.10" departPosLat="0.00" departSpeed="13.45" departDelay="0.00" arrival="59.00" arrivalLane="E_out_1" arrivalPos="189.00" arrivalPosLat="0.00" arrivalSpeed="13.01" duration="35.00" routeLength="396.46" waitingTime="0.00" waitingCount="0" stopTime="0.00" timeLoss="4.85" rerouteNo="0" devices="tripinfo_f_N_E.1" vType="moto" speedFactor="0.97" vaporized=""/>
    <tripinfo id="f_S_E.1" depart="24.00" departLane="S_in_0" departPos="2.10" departPosLat="0.00" departSpeed="13.06" departDelay="0.00" arrival="60.00" arrivalLane="E_out_0" arrivalPos="189.00" arrivalPosLat="1.00" arrivalSpeed="12.49" duration="36.00" routeLength="385.17" waitingTime="0.00" waitingCount="0" stopTime="0.00" timeLoss="4.89" rerouteNo="0" devices="tripinfo_f_S_E.1" vType="moto" speedFactor="0.94" vaporized=""/>
    <tripinfo id="f_W_S.0" depart="1.00" departLane="W_in_0" departPos="4.60" departPosLat="0.00" departSpeed="9.50" departDelay="1.00" arrival="62.00" arrivalLane="S_out_0" arrivalPos="189.00" arrivalPosLat="-0.35" arrivalSpeed="13.74" duration="61.00" routeLength="382.67" waitingTime="21.00" waitingCount="2" stopTime="0.00" timeLoss="32.66" rerouteNo="0" devices="tripinfo_f_W_S.0" vType="car" speedFactor="1.01" vaporized=""/>
    <tripinfo id="f_E_W.1" depart="9.00" departLane="E_in_1" departPos="2.10" departPosLat="0.00" departSpeed="14.01" departDelay="0.00" arrival="62.00" arrivalLane="W_out_1" arrivalPos="189.00" arrivalPosLat="-1.35" arrivalSpeed="13.74" duration="53.00" routeLength="397.90" waitingTime="18.00" waitingCount="1" stopTime="0.00" timeLoss="24.23" rerouteNo="0" devices="tripinfo_f_E_W.1" vType="moto" speedFactor="1.01" vaporized=""/>
    <tripinfo id="f_E_N.0" depart="1.00" departLane="E_in_0" departPos="4.60" departPosLat="0.00" departSpeed="7.00" departDelay="1.00" arrival="64.00" arrivalLane="N_out_0" arrivalPos="189.00" arrivalPosLat="0.00" arrivalSpeed="11.99" duration="63.00" routeLength="382.67" waitingTime="21.00" waitingCount="2" stopTime="0.00" timeLoss="32.18" rerouteNo="0" devices="tripinfo_f_E_N.0" vType="car" speedFactor="0.93" vaporized=""/>
    <tripinfo id="f_E_W.0" depart="0.00" departLane="E_in_0" departPos="2.10" departPosLat="0.00" departSpeed="12.51" departDelay="0.00" arrival="65.00" arrivalLane="W_out_0" arrivalPos="189.00" arrivalPosLat="0.75" arrivalSpeed="10.80" duration="65.00" routeLength="397.90" waitingTime="25.00" waitingCount="1" stopTime="0.00" timeLoss="32.42" rerouteNo="0" devices="tripinfo_f_E_W.0" vType="moto" speedFactor="0.90" vaporized=""/>
    <tripinfo id="f_W_E.0" depart="0.00" departLane="W_in_0" departPos="2.90" departPosLat="0.00" departSpeed="13.00" departDelay="0.00" arrival="65.00" arrivalLane="E_out_0" arrivalPos="189.00" arrivalPosLat="1.30" arrivalSpeed="12.93" duration="65.00" routeLength="397.10" waitingTime="28.00" waitingCount="1" stopTime="0.00" timeLoss="33.89" rerouteNo="0" devices="tripinfo_f_W_E.0" vType="auto" speedFactor="0.94" vaporized=""/>
    <tripinfo id="f_W_E.1" depart="9.00" departLane="W_in_0" departPos="2.10" departPosLat="0.00" departSpeed="12.12" departDelay="0.00" arrival="66.00" arrivalLane="E_out_1" arrivalPos="189.00" arrivalPosLat="1.35" arrivalSpeed="11.42" duration="57.00" routeLength="397.90" waitingTime="16.00" waitingCount="1" stopTime="0.00" timeLoss="23.27" rerouteNo="0" devices="tripinfo_f_W_E.1" vType="moto" speedFactor="0.87" vaporized=""/>
    <tripinfo id="f_W_E.3" depart="27.00" departLane="W_in_0" departPos="2.10" departPosLat="0.00" departSpeed="14.31" departDelay="0.00" arrival="66.00" arrivalLane="E_out_0" arrivalPos="189.00" arrivalPosLat="1.00" arrivalSpeed="14.00" duration="39.00" routeLength="397.90" waitingTime="2.00" waitingCount="1" stopTime="0.00" timeLoss="10.96" rerouteNo="0" devices="tripinfo_f_W_E.3" vType="moto" speedFactor="1.03" vaporized=""/>
    <tripinfo id="f_E_W.2" depart="18.00" departLane="E_in_0" departPos="2.10" departPosLat="0.00" departSpeed="12.42" departDelay="0.00" arrival="68.00" arrivalLane="W_out_1" arrivalPos="189.00" arrivalPosLat="1.35" arrivalSpeed="11.34" duration="50.00" routeLength="397.90" waitingTime="8.00" waitingCount="2" stopTime="0.00" timeLoss="17.59" rerouteNo="0" devices="tripinfo_f_E_W.2" vType="moto" speedFactor="0.89" vaporized=""/>
    <tripinfo id="f_E_W.3" depart="27.00" departLane="E_in_0" departPos="4.60" departPosLat="0.00" departSpeed="11.60" departDelay="0.00" arrival="68.00" arrivalLane="W_out_0" arrivalPos="189.00" arrivalPosLat="0.00" arrivalSpeed="11.55" duration="41.00" routeLength="395.40" waitingTime="0.00" waitingCount="0" stopTime="0.00" timeLoss="6.33" rerouteNo="0" devices="tripinfo_f_E_W.3" vType="car" speedFactor="0.83" vaporized=""/>
    <tripinfo id="f_W_S.1" depart="30.00" departLane="W_in_0" departPos="4.60" departPosLat="0.00" departSpeed="12.18" departDelay="0.00" arrival="69.00" arrivalLane="S_out_0" arrivalPos="189.00" arrivalPosLat="0.00" arrivalSpeed="11.96" duration="39.00" routeLength="382.67" waitingTime="0.00" waitingCount="0" stopTime="0.00" timeLoss="6.33" rerouteNo="0" devices="tripinfo_f_W_S.1" vType="car" speedFactor="0.88" vaporized=""/>
    <tripinfo id="f_E_N.1" depart="30.00" departLane="E_in_0" departPos="2.90" departPosLat="0.00" departSpeed="10.70" departDelay="0.00" arrival="71.00" arrivalLane="N_out_1" arrivalPos="189.00" arrivalPosLat="-1.10" arrivalSpeed="10.13" duration="41.00" routeLength="384.37" waitingTime="0.00" waitingCount="0" stopTime="0.00" timeLoss="4.01" rerouteNo="0" devices="tripinfo_f_E_N.1" vType="auto" speedFactor="0.77" vaporized=""/>
    <tripinfo id="f_W_E.4" depart="36.00" departLane="W_in_1" departPos="4.60" departPosLat="0.00" departSpeed="13.93" departDelay="0.00" arrival="74.00" arrivalLane="E_out_0" arrivalPos="189.00" arrivalPosLat="0.00" arrivalSpeed="13.28" duration="38.00" routeLength="395.40" waitingTime="0.00" waitingCount="0" stopTime="0.00" timeLoss="8.91" rerouteNo="0" devices="tripinfo_f_W_E.4" vType="car" speedFactor="1.00" vaporized=""/>
    <tripinfo id="f_W_E.5" depart="45.00" departLane="W_in_0" departPos="2.10" departPosLat="0.00" departSpeed="14.22" departDelay="0.00" arrival="76.00" arrivalLane="E_out_0" arrivalPos="189.00" arrivalPosLat="1.00" arrivalSpeed="13.60" duration="31.00" routeLength="397.90" waitingTime="0.00" waitingCount="0" stopTime="0.00" timeLoss="2.12" rerouteNo="0" devices="tripinfo_f_W_E.5" vType="moto" speedFactor="1.02" vaporized=""/>
    <tripinfo id="f_E_S.0" depart="0.00" departLane="E_in_1" departPos="2.10" departPosLat="0.00" departSpeed="14.47" departDelay="0.00" arrival="79.00" arrivalLane="S_out_1" arrivalPos="189.00" arrivalPosLat="-0.15" arrivalSpeed="13.94" duration="79.00" routeLength="396.46" waitingTime="42.00" waitingCount="2" stopTime="0.00" timeLoss="50.81" rerouteNo="0" devices="tripinfo_f_E_S.0" vType="moto" speedFactor="1.04" vaporized=""/>
    <tripinfo id="f_E_S.1" depart="30.00" departLane="E_in_1" departPos="2.10" departPosLat="0.00" departSpeed="12.51" departDelay="0.00" arrival="81.00" arrivalLane="S_out_1" arrivalPos="189.00" arrivalPosLat="-1.35" arrivalSpeed="11.82" duration="51.00" routeLength="396.46" waitingTime="10.00" waitingCount="2" stopTime="0.00" timeLoss="18.23" rerouteNo="0" devices="tripinfo_f_E_S.1" vType="moto" speedFactor="0.90" vaporized=""/>
    <tripinfo id="f_E_W.4" depart="36.00" departLane="E_in_1" departPos="2.10" departPosLat="0.00" departSpeed="14.56" departDelay="0.00" arrival="81.00" arrivalLane="W_out_0" arrivalPos="189.00" arrivalPosLat="1.70" arrivalSpeed="14.35" duration="45.00" routeLength="397.90" waitingTime="5.00" waitingCount="1" stopTime="0.00" timeLoss="16.72" rerouteNo="0" devices="tripinfo_f_E_W.4" vType="moto" speedFactor="1.05" vaporized=""/>
    <tripinfo id="f_E_W.5" depart="45.00" departLane="E_in_0" departPos="2.90" departPosLat="0.00" departSpeed="13.36" departDelay="0.00" arrival="84.00" arrivalLane="W_out_0" arrivalPos="189.00" arrivalPosLat="0.80" arrivalSpeed="12.65" duration="39.00" routeLength="397.10" waitingTime="1.00" waitingCount="1" stopTime="0.00" timeLoss="8.34" rerouteNo="0" devices="tripinfo_f_E_W.5" vType="auto" speedFactor="0.96" vaporized=""/>
    <tripinfo id="f_W_E.6" depart="54.00" departLane="W_in_0" departPos="2.10" departPosLat="0.00" departSpeed="14.20" departDelay="0.00" arrival="85.00" arrivalLane="E_out_0" arrivalPos="189.00" arrivalPosLat="0.00" arrivalSpeed="13.22" duration="31.00" routeLength="397.90" waitingTime="0.00" waitingCount="0" stopTime="0.00" timeLoss="2.43" rerouteNo="0" devices="tripinfo_f_W_E.6" vType="moto" speedFactor="1.02" vaporized=""/>
    <tripinfo id="f_E_W.6" depart="54.00" departLane="E_in_0" departPos="2.10" departPosLat="0.00" departSpeed="13.16" departDelay="0.00" arrival="87.00" arrivalLane="W_out_0" arrivalPos="189.00" arrivalPosLat="0.00" arrivalSpeed="12.55" duration="33.00" routeLength="397.90" waitingTime="0.00" waitingCount="0" stopTime="0.00" timeLoss="2.77" rerouteNo="0" devices="tripinfo_f_E_W.6" vType="moto" speedFactor="0.95" vaporized=""/>
    <tripinfo id="f_W_E.2" depart="18.00" departLane="W_in_1" departPos="2.10" departPosLat="0.00" departSpeed="16.03" departDelay="0.00" arrival="89.00" arrivalLane="E_out_1" arrivalPos="189.00" arrivalPosLat="1.15" arrivalSpeed="15.44" duration="71.00" routeLength="397.90" waitingTime="31.00" waitingCount="2" stopTime="0.00" timeLoss="45.81" rerouteNo="0" devices="tripinfo_f_W_E.2" vType="moto" speedFactor="1.15" vaporized=""/>
    <tripinfo id="f_E_N.2" depart="60.00" departLane="E_in_0" departPos="2.10" departPosLat="0.00" departSpeed="15.52" departDelay="0.00" arrival="89.00" arrivalLane="N_out_0" arrivalPos="189.00" arrivalPosLat="0.00" arrivalSpeed="14.60" duration="29.00" routeLength="385.17" waitingTime="0.00" waitingCount="0" stopTime="0.00" timeLoss="3.01" rerouteNo="0" devices="tripinfo_f_E_N.2" vType="moto" speedFactor="1.12" vaporized=""/>
    <tripinfo id="f_W_N.0" depart="0.00" departLane="W_in_1" departPos="2.90" departPosLat="0.00" departSpeed="14.00" departDelay="0.00" arrival="91.00" arrivalLane="N_out_1" arrivalPos="189.00" arrivalPosLat="-0.20" arrivalSpeed="13.64" duration="91.00" routeLength="395.66" waitingTime="49.00" waitingCount="3" stopTime="0.00" timeLoss="61.84" rerouteNo="0" devices="tripinfo_f_W_N.0" vType="auto" speedFactor="1.08" vaporized=""/>
    <tripinfo id="f_W_S.2" depart="60.00" departLane="W_in_0" departPos="2.10" departPosLat="0.00" departSpeed="15.10" departDelay="0.00" arrival="91.00" arrivalLane="S_out_1" arrivalPos="189.00" arrivalPosLat="-1.30" arrivalSpeed="14.79" duration="31.00" routeLength="385.17" waitingTime="0.00" waitingCount="0" stopTime="0.00" timeLoss="4.04" rerouteNo="0" devices="tripinfo_f_W_S.2" vType="moto" speedFactor="1.09" vaporized=""/>
    <tripinfo id="f_W_E.7" depart="63.00" departLane="W_in_0" departPos="2.10" departPosLat="0.00" departSpeed="14.12" departDelay="0.00" arrival="94.00" arrivalLane="E_out_0" arrivalPos="189.00" arrivalPosLat="0.00" arrivalSpeed="14.09" duration="31.00" routeLength="397.90" waitingTime="0.00" waitingCount="0" stopTime="0.00" timeLoss="2.43" rerouteNo="0" devices="tripinfo_f_W_E.7" vType="moto" speedFactor="1.02" vaporized=""/>
    <tripinfo id="f_E_S.2" depart="60.00" departLane="E_in_1" departPos="2.10" departPosLat="0.00" departSpeed="14.34" departDelay="0.00" arrival="97.00" arrivalLane="S_out_1" arrivalPos="189.00" arrivalPosLat="0.00" arrivalSpeed="12.95" duration="37.00" routeLength="396.46" waitingTime="3.00" waitingCount="1" stopTime="0.00" timeLoss="8.71" rerouteNo="0" devices="tripinfo_f_E_S.2" vType="moto" speedFactor="1.03" vaporized=""/>
    <tripinfo id="f_E_W.7" depart="63.00" departLane="E_in_0" departPos="2.90" departPosLat="0.00" departSpeed="12.47" departDelay="0.00" arrival="97.00" arrivalLane="W_out_0" arrivalPos="189.00" arrivalPosLat="0.00" arrivalSpeed="12.28" duration="34.00" routeLength="397.10" waitingTime="0.00" waitingCount="0" stopTime="0.00" timeLoss="1.36" rerouteNo="0" devices="tripinfo_f_E_W.7" vType="auto" speedFactor="0.90" vaporized=""/>
    <tripinfo id="f_W_N.1" depart="30.00" departLane="W_in_1" departPos="4.60" departPosLat="0.00" departSpeed="14.18" departDelay="0.00" arrival="98.00" arrivalLane="N_out_1" arrivalPos="189.00" arrivalPosLat="0.00" arrivalSpeed="13.75" duration="68.00" routeLength="393.96" waitingTime="19.00" waitingCount="3" stopTime="0.00" timeLoss="39.42" rerouteNo="0" devices="tripinfo_f_W_N.1" vType="car" speedFactor="1.02" vaporized=""/>
    <tripinfo id="f_W_N.2" depart="60.00" departLane="W_in_1" departPos="2.10" departPosLat="0.00" departSpeed="12.76" departDelay="0.00" arrival="100.00" arrivalLane="N_out_1" arrivalPos="189.00" arrivalPosLat="1.00" arrivalSpeed="12.48" duration="40.00" routeLength="396.46" waitingTime="0.00" waitingCount="0" stopTime="0.00" timeLoss="8.11" rerouteNo="0" devices="tripinfo_f_W_N.2" vType="moto" speedFactor="0.92" vaporized=""/>
    <tripinfo id="f_S_N.5" depart="36.00" departLane="S_in_0" departPos="2.10" departPosLat="0.00" departSpeed="16.24" departDelay="0.00" arrival="106.00" arrivalLane="N_out_1" arrivalPos="189.00" arrivalPosLat="-1.35" arrivalSpeed="16.13" duration="70.00" routeLength="397.90" waitingTime="38.00" waitingCount="1" stopTime="0.00" timeLoss="45.25" rerouteNo="0" devices="tripinfo_f_S_N.5" vType="moto" speedFactor="1.17" vaporized=""/>
    <tripinfo id="f_N_S.4" depart="29.00" departLane="N_in_0" departPos="2.10" departPosLat="0.00" departSpeed="14.80" departDelay="0.20" arrival="107.00" arrivalLane="S_out_1" arrivalPos="189.00" arrivalPosLat="-1.35" arrivalSpeed="14.65" duration="78.00" routeLength="397.90" waitingTime="45.00" waitingCount="1" stopTime="0.00" timeLoss="51.11" rerouteNo="0" devices="tripinfo_f_N_S.4" vType="moto" speedFactor="1.07" vaporized=""/>
    <tripinfo id="f_S_N.4" depart="29.00" departLane="S_in_1" departPos="2.10" departPosLat="0.00" departSpeed="14.42" departDelay="0.20" arrival="107.00" arrivalLane="N_out_1" arrivalPos="189.00" arrivalPosLat="1.35" arrivalSpeed="12.39" duration="78.00" routeLength="397.90" waitingTime="44.00" waitingCount="1" stopTime="0.00" timeLoss="50.34" rerouteNo="0" devices="tripinfo_f_S_N.4" vType="moto" speedFactor="1.04" vaporized=""/>
    <tripinfo id="f_N_S.5" depart="36.00" departLane="N_in_0" departPos="2.10" departPosLat="0.00" departSpeed="14.77" departDelay="0.00" arrival="108.00" arrivalLane="S_out_1" arrivalPos="189.00" arrivalPosLat="0.15" arrivalSpeed="13.71" duration="72.00" routeLength="397.90" waitingTime="38.00" waitingCount="1" stopTime="0.00" timeLoss="44.40" rerouteNo="0" devices="tripinfo_f_N_S.5" vType="moto" speedFactor="1.06" vaporized=""/>
    <tripinfo id="f_N_W.2" depart="48.00" departLane="N_in_0" departPos="2.10" departPosLat="0.00" departSpeed="15.55" departDelay="0.00" arrival="108.00" arrivalLane="W_out_1" arrivalPos="189.00" arrivalPosLat="-1.30" arrivalSpeed="14.10" duration="60.00" routeLength="385.17" waitingTime="27.00" waitingCount="1" stopTime="0.00" timeLoss="34.26" rerouteNo="0" devices="tripinfo_f_N_W.2" vType="moto" speedFactor="1.12" vaporized=""/>
    <tripinfo id="f_N_S.7" depart="51.00" departLane="N_in_0" departPos="2.10" departPosLat="0.00" departSpeed="13.33" departDelay="0.60" arrival="109.00" arrivalLane="S_out_0" arrivalPos="189.00" arrivalPosLat="-1.35" arrivalSpeed="13.26" duration="58.00" routeLength="397.90" waitingTime="18.00" waitingCount="1" stopTime="0.00" timeLoss="27.79" rerouteNo="0" devices="tripinfo_f_N_S.7" vType="moto" speedFactor="0.96" vaporized=""/>
    <tripinfo id="f_S_N.6" depart="44.00" departLane="S_in_0" departPos="4.60" departPosLat="0.00" departSpeed="12.49" departDelay="0.80" arrival="110.00" arrivalLane="N_out_0" arrivalPos="189.00" arrivalPosLat="0.00" arrivalSpeed="12.41" duration="66.00" routeLength="395.40" waitingTime="27.00" waitingCount="1" stopTime="0.00" timeLoss="33.58" rerouteNo="0" devices="tripinfo_f_S_N.6" vType="car" speedFactor="0.90" vaporized=""/>
    <tripinfo id="f_S_E.2" depart="48.00" departLane="S_in_0" departPos="4.60" departPosLat="0.00" departSpeed="13.86" departDelay="0.00" arrival="110.00" arrivalLane="E_out_0" arrivalPos="189.00" arrivalPosLat="0.00" arrivalSpeed="12.77" duration="62.00" routeLength="382.67" waitingTime="27.00" waitingCount="1" stopTime="0.00" timeLoss="33.09" rerouteNo="0" devices="tripinfo_f_S_E.2" vType="car" speedFactor="1.00" vaporized=""/>
    <tripinfo id="f_N_S.10" depart="72.00" departLane="N_in_0" departPos="2.10" departPosLat="0.00" departSpeed="13.61" departDelay="0.00" arrival="110.00" arrivalLane="S_out_1" arrivalPos="189.00" arrivalPosLat="-1.35" arrivalSpeed="12.16" duration="38.00" routeLength="397.90" waitingTime="0.00" waitingCount="0" stopTime="0.00" timeLoss="8.68" rerouteNo="0" devices="tripinfo_f_N_S.10" vType="moto" speedFactor="0.98" vaporized=""/>
    <tripinfo id="f_S_E.3" depart="73.00" departLane="S_in_0" departPos="2.10" departPosLat="0.00" departSpeed="8.24" departDelay="1.00" arrival="110.00" arrivalLane="E_out_1" arrivalPos="189.00" arrivalPosLat="-0.15" arrivalSpeed="14.48" duration="37.00" routeLength="385.17" waitingTime="0.00" waitingCount="0" stopTime="0.00" timeLoss="9.47" rerouteNo="0" devices="tripinfo_f_S_E.3" vType="moto" speedFactor="1.05" vaporized=""/>
    <tripinfo id="f_S_N.7" depart="51.00" departLane="S_in_0" departPos="2.10" departPosLat="0.00" departSpeed="12.60" departDelay="0.60" arrival="111.00" arrivalLane="N_out_1" arrivalPos="189.00" arrivalPosLat="-1.35" arrivalSpeed="11.84" duration="60.00" routeLength="397.90" waitingTime="18.00" waitingCount="1" stopTime="0.00" timeLoss="28.37" rerouteNo="0" devices="tripinfo_f_S_N.7" vType="moto" speedFactor="0.91" vaporized=""/>
    <tripinfo id="f_S_N.8" depart="58.00" departLane="S_in_1" departPos="2.10" departPosLat="0.00" departSpeed="14.66" departDelay="0.40" arrival="111.00" arrivalLane="N_out_1" arrivalPos="189.00" arrivalPosLat="1.05" arrivalSpeed="13.19" duration="53.00" routeLength="397.90" waitingTime="16.00" waitingCount="1" stopTime="0.00" timeLoss="25.18" rerouteNo="0" devices="tripinfo_f_S_N.8" vType="moto" speedFactor="1.06" vaporized=""/>
    <tripinfo id="f_N_S.9" depart="65.00" departLane="N_in_1" departPos="2.10" departPosLat="0.00" departSpeed="15.03" departDelay="0.20" arrival="111.00" arrivalLane="S_out_1" arrivalPos="189.00" arrivalPosLat="0.55" arrivalSpeed="13.32" duration="46.00" routeLength="397.90" waitingTime="7.00" waitingCount="1" stopTime="0.00" timeLoss="18.72" rerouteNo="0" devices="tripinfo_f_N_S.9" vType="moto" speedFactor="1.08" vaporized=""/>
    <tripinfo id="f_N_S.8" depart="58.00" departLane="N_in_0" departPos="2.90" departPosLat="0.00" departSpeed="12.89" departDelay="0.40" arrival="113.00" arrivalLane="S_out_0" arrivalPos="189.00" arrivalPosLat="0.30" arrivalSpeed="12.38" duration="55.00" routeLength="397.10" waitingTime="16.00" waitingCount="1" stopTime="0.00" timeLoss="24.10" rerouteNo="0" devices="tripinfo_f_N_S.8" vType="auto" speedFactor="0.93" vaporized=""/>
    <tripinfo id="f_S_N.11" depart="80.00" departLane="S_in_1" departPos="2.10" departPosLat="0.00" departSpeed="15.24" departDelay="0.80" arrival="113.00" arrivalLane="N_out_1" arrivalPos="189.00" arrivalPosLat="-0.35" arrivalSpeed="15.03" duration="33.00" routeLength="397.90" waitingTime="0.00" waitingCount="0" stopTime="0.00" timeLoss="6.04" rerouteNo="0" devices="tripinfo_f_S_N.11" vType="moto" speedFactor="1.10" vaporized=""/>
    <tripinfo id="f_N_W.3" depart="73.00" departLane="N_in_0" departPos="4.60" departPosLat="0.00" departSpeed="8.08" departDelay="1.00" arrival="114.00" arrivalLane="W_out_0" arrivalPos="189.00" arrivalPosLat="0.00" arrivalSpeed="12.29" duration="41.00" routeLength="382.67" waitingTime="1.00" waitingCount="1" stopTime="0.00" timeLoss="11.32" rerouteNo="0" devices="tripinfo_f_N_W.3" vType="car" speedFactor="0.94" vaporized=""/>
    <tripinfo id="f_N_S.11" depart="80.00" departLane="N_in_1" departPos="2.10" departPosLat="0.00" departSpeed="15.86" departDelay="0.80" arrival="115.00" arrivalLane="S_out_0" arrivalPos="189.00" arrivalPosLat="-1.35" arrivalSpeed="14.39" duration="35.00" routeLength="397.90" waitingTime="0.00" waitingCount="0" stopTime="0.00" timeLoss="9.68" rerouteNo="0" devices="tripinfo_f_N_S.11" vType="moto" speedFactor="1.14" vaporized=""/>
    <tripinfo id="f_S_N.9" depart="65.00" departLane="S_in_0" departPos="2.90" departPosLat="0.00" departSpeed="13.56" departDelay="0.20" arrival="118.00" arrivalLane="N_out_0" arrivalPos="189.00" arrivalPosLat="1.30" arrivalSpeed="12.77" duration="53.00" routeLength="397.10" waitingTime="7.00" waitingCount="2" stopTime="0.00" timeLoss="23.59" rerouteNo="0" devices="tripinfo_f_S_N.9" vType="auto" speedFactor="0.98" vaporized=""/>
    <tripinfo id="f_S_N.12" depart="87.00" departLane="S_in_0" departPos="2.10" departPosLat="0.00" departSpeed="14.90" departDelay="0.60" arrival="119.00" arrivalLane="N_out_0" arrivalPos="189.00" arrivalPosLat="-0.70" arrivalSpeed="14.13" duration="32.00" routeLength="397.90" waitingTime="0.00" waitingCount="0" stopTime="0.00" timeLoss="5.14" rerouteNo="0" devices="tripinfo_f_S_N.12" vType="moto" speedFactor="1.07" vaporized=""/>
    <tripinfo id="f_N_S.12" depart="87.00" departLane="N_in_0" departPos="2.10" departPosLat="0.00" departSpeed="13.18" departDelay="0.60" arrival="121.00" arrivalLane="S_out_0" arrivalPos="189.00" arrivalPosLat="0.00" arrivalSpeed="12.17" duration="34.00" routeLength="397.90" waitingTime="0.00" waitingCount="0" stopTime="0.00" timeLoss="3.01" rerouteNo="0" devices="tripinfo_f_N_S.12" vType="moto" speedFactor="0.95" vaporized=""/>
    <tripinfo id="f_S_W.3" depart="72.00" departLane="S_in_1" departPos="2.10" departPosLat="0.00" departSpeed="14.68" departDelay="0.00" arrival="122.00" arrivalLane="W_out_1" arrivalPos="189.00" arrivalPosLat="1.35" arrivalSpeed="14.19" duration="50.00" routeLength="396.46" waitingTime="13.00" waitingCount="2" stopTime="0.00" timeLoss="22.05" rerouteNo="0" devices="tripinfo_f_S_W.3" vType="moto" speedFactor="1.06" vaporized=""/>
    <tripinfo id="f_N_W.4" depart="96.00" departLane="N_in_0" departPos="4.60" departPosLat="0.00" departSpeed="16.35" departDelay="0.00" arrival="123.00" arrivalLane="W_out_0" arrivalPos="189.00" arrivalPosLat="0.00" arrivalSpeed="15.24" duration="27.00" routeLength="382.67" waitingTime="0.00" waitingCount="0" stopTime="0.00" timeLoss="2.95" rerouteNo="0" devices="tripinfo_f_N_W.4" vType="car" speedFactor="1.18" vaporized=""/>